 +-------------------------------------------------+
 |                                                 |
 |      CCC   AA    SSS  TTTTT  EEEEE  PPPP        |
 |     C     A  A  S       T    E      P   P       |
 |     C     AAAA   SS     T    EEE    PPPP        |
 |     C     A  A     S    T    E      P           |
 |      CCC  A  A  SSS     T    EEEEE  P           |
 |                                                 |
 +-------------------------------------------------+
 |                                                 |
 | Welcome to Academic Release CASTEP version 17.21|          
 | Ab Initio Total Energy Program                  |
 |                                                 |
 | Authors:                                        |
 | M. Segall, M. Probert, C. Pickard, P. Hasnip,   |
 | S. Clark, K. Refson, J. R. Yates, M. Payne      |
 |                                                 |
 | Contributors:                                   |
 | P. Lindan, P. Haynes, J. White, V. Milman,      |
 | N. Govind, M. Gibson, P. Tulip, V. Cocula,      |
 | B. Montanari, D. Quigley, M. Glover,            |
 | L. Bernasconi, A. Perlov, M. Plummer,           |
 | E. McNellis, J. Meyer, J. Gale, D. Jochym       |
 | J. Aarons, B. Walker, R. Gillen, D. Jones       |
 | T. Green, I. J. Bush, C. J. Armstrong,          |
 | E. J. Higgins, E. L. Brown, M. S. McFly,        |
 | J. Wilkins, B-C. Shih, P. J. P. Byrne           |
 |                                                 |
 | Copyright (c) 2000 - 2017                       |
 |                                                 |
 |     Distributed under the terms of an           |
 |     Agreement between the United Kingdom        |
 |     Car-Parrinello (UKCP) Consortium,           |
 |     Daresbury Laboratory and Accelrys, Inc.     |
 |                                                 |
 | Please cite                                     |
 |                                                 |
 |     "First principles methods using CASTEP"     |
 |                                                 |
 |         Zeitschrift fuer Kristallographie       |
 |           220(5-6) pp. 567-570 (2005)           |
 |                                                 |
 | S. J. Clark, M. D. Segall, C. J. Pickard,       |
 | P. J. Hasnip, M. J. Probert, K. Refson,         |
 | M. C. Payne                                     |
 |                                                 |
 |       in all publications arising from          |
 |              your use of CASTEP                 |
 |                                                 |
 +-------------------------------------------------+
 
 
 Compiled for linux_x86_64_ifort17 on Fri, 27 Nov 2020 14:29:11 +0000
 from code version 
 056e886bd5a1+ Castep172_branch Mon, 15 May 2017 14:45:35 +0100
 Compiler: Intel Fortran 17.0.4.196; Optimisation: fast
 MATHLIBS: Intel MKL(2017.0.3) (LAPACK version 3.7.0)
 FFT Lib : mkl
 Fundamental constants values: CODATA 2010
 
 Run started: Sat, 28 Nov 2020 06:42:14 +0000
 
 Pseudo atomic calculation performed for O 2s2 2p4
 
 Converged in 13 iterations to a total energy of -430.9846 eV
 
 
 Pseudo atomic calculation performed for Al 3s2 3p1
 
 Converged in 14 iterations to a total energy of -53.3906 eV
 
 Calculation parallelised over 40 processes.
 Data is distributed by G-vector(20-way) and k-point(2-way)

 ************************************ Title ************************************
 3x3 sapphire surface benchmark (v1.1)

 ***************************** General Parameters ******************************
  
 output verbosity                               : normal  (1)
 write checkpoint data to                       : al3x3.check
 type of calculation                            : single point energy
 stress calculation                             : off
 density difference calculation                 : off
 electron localisation func (ELF) calculation   : off
 Hirshfeld analysis                             : off
 unlimited duration calculation
 timing information                             : on
 memory usage estimate                          : on
 write final potential to formatted file        : off
 write final density to formatted file          : off
 write BibTeX reference list                    : on
 write OTFG pseudopotential files               : on
 write electrostatic potential file             : on
 write bands file                               : on
 checkpoint writing                             : both castep_bin and check files
  
 output         length unit                     : A
 output           mass unit                     : amu
 output           time unit                     : ps
 output         charge unit                     : e
 output           spin unit                     : hbar/2
 output         energy unit                     : eV
 output          force unit                     : eV/A
 output       velocity unit                     : A/ps
 output       pressure unit                     : GPa
 output     inv_length unit                     : 1/A
 output      frequency unit                     : cm-1
 output force constant unit                     : eV/A**2
 output         volume unit                     : A**3
 output   IR intensity unit                     : (D/A)**2/amu
 output         dipole unit                     : D
 output         efield unit                     : eV/A/e
 output        entropy unit                     : J/mol/K
  
 wavefunctions paging                           : none
 random number generator seed                   :          1
 data distribution                              : optimal for this architecture
 optimization strategy                          : maximize speed(+++)

 *********************** Exchange-Correlation Parameters ***********************
  
 using functional                               : Perdew Wang (1991)
 relativistic treatment                         : Koelling-Harmon
 DFT+D: Semi-empirical dispersion correction    : off

 ************************* Pseudopotential Parameters **************************
  
 pseudopotential representation                 : reciprocal space
 <beta|phi> representation                      : reciprocal space
 spin-orbit coupling                            : off

 **************************** Basis Set Parameters *****************************
  
 plane wave basis set cut-off                   :   400.0000   eV
 size of standard grid                          :     1.7500
 size of   fine   gmax                          :    17.9311   1/A
 finite basis set correction                    : none

 **************************** Electronic Parameters ****************************
  
 number of  electrons                           :  1296.    
 net charge of system                           :  0.000    
 treating system as non-spin-polarized
 number of bands                                :        768

 ********************* Electronic Minimization Parameters **********************
  
 Method: Treating system as metallic with density mixing treatment of electrons,
         and number of  SD  steps               :          1
         and number of  CG  steps               :          4
  
 total energy / atom convergence tol.           : 0.1500E-01   eV
 eigen-energy convergence tolerance             : 0.1000E-05   eV
 max force / atom convergence tol.              : ignored
 convergence tolerance window                   :          3   cycles
 max. number of SCF cycles                      :         40
 smearing scheme                                : Gaussian
 smearing width                                 : 0.1000       eV
 Fermi energy convergence tolerance             : 0.2721E-13   eV
 periodic dipole correction                     : NONE

 ************************** Density Mixing Parameters **************************
  
 density-mixing scheme                          : Pulay
 max. length of mixing history                  :         20
 charge density mixing amplitude                : 0.8000    
 cut-off energy for mixing                      :  400.0       eV

 *******************************************************************************
  
 
                           -------------------------------
                                      Unit Cell
                           -------------------------------
        Real Lattice(A)                      Reciprocal Lattice(1/A)
  12.3642447  -7.1385000   0.0000000        0.5081738   0.0000000   0.0000000
   0.0000000  14.2770000   0.0000000        0.2540869   0.4400914   0.0000000
   0.0000000   0.0000000  27.5000000        0.0000000   0.0000000   0.2284795
 
                       Lattice parameters(A)       Cell Angles
                    a =   14.277000          alpha =   90.000000
                    b =   14.277000          beta  =   90.000000
                    c =   27.500000          gamma =  120.000000
 
                       Current cell volume = 4854.418839       A**3
                                   density =    1.134206   AMU/A**3
                                           =    1.883393     g/cm^3
 
                           -------------------------------
                                     Cell Contents
                           -------------------------------
                         Total number of ions in cell =  270
                      Total number of species in cell =    2
                        Max number of any one species =  162
 
            xxxxxxxxxxxxxxxxxxxxxxxxxxxxxxxxxxxxxxxxxxxxxxxxxxxxxxxxxxxx
            x  Element    Atom        Fractional coordinates of atoms  x
            x            Number           u          v          w      x
            x----------------------------------------------------------x
            x  O            1         0.102000   0.000000   0.645700   x 
            x  O            2         0.000000   0.102000   0.645700   x 
            x  O            3         0.231333   0.231333   0.645700   x 
            x  O            4         0.009111   0.222222   0.724433   x 
            x  O            5         0.111111   0.120222   0.724433   x 
            x  O            6         0.213111   0.324222   0.724433   x 
            x  O            7         0.120222   0.111111   0.566967   x 
            x  O            8         0.222222   0.009111   0.566967   x 
            x  O            9         0.324222   0.213111   0.566967   x 
            x  O           10         0.324222   0.111111   0.803167   x 
            x  O           11         0.222222   0.213111   0.803167   x 
            x  O           12         0.120222   0.009111   0.803167   x 
            x  O           13         0.213111   0.222222   0.960633   x 
            x  O           14         0.111111   0.324222   0.960633   x 
            x  O           15         0.009111   0.120222   0.960633   x 
            x  O           16         0.231333   0.000000   0.881900   x 
            x  O           17         0.000000   0.231333   0.881900   x 
            x  O           18         0.102000   0.102000   0.881900   x 
            x  O           19         0.102000   0.333333   0.645700   x 
            x  O           20         0.000000   0.435333   0.645700   x 
            x  O           21         0.231333   0.564667   0.645700   x 
            x  O           22         0.009111   0.555556   0.724433   x 
            x  O           23         0.111111   0.453556   0.724433   x 
            x  O           24         0.213111   0.657556   0.724433   x 
            x  O           25         0.120222   0.444444   0.566967   x 
            x  O           26         0.222222   0.342444   0.566967   x 
            x  O           27         0.324222   0.546444   0.566967   x 
            x  O           28         0.324222   0.444444   0.803167   x 
            x  O           29         0.222222   0.546444   0.803167   x 
            x  O           30         0.120222   0.342444   0.803167   x 
            x  O           31         0.213111   0.555556   0.960633   x 
            x  O           32         0.111111   0.657556   0.960633   x 
            x  O           33         0.009111   0.453556   0.960633   x 
            x  O           34         0.231333   0.333333   0.881900   x 
            x  O           35         0.000000   0.564667   0.881900   x 
            x  O           36         0.102000   0.435333   0.881900   x 
            x  O           37         0.102000   0.666667   0.645700   x 
            x  O           38         0.000000   0.768667   0.645700   x 
            x  O           39         0.231333   0.898000   0.645700   x 
            x  O           40         0.009111   0.888889   0.724433   x 
            x  O           41         0.111111   0.786889   0.724433   x 
            x  O           42         0.213111   0.990889   0.724433   x 
            x  O           43         0.120222   0.777778   0.566967   x 
            x  O           44         0.222222   0.675778   0.566967   x 
            x  O           45         0.324222   0.879778   0.566967   x 
            x  O           46         0.324222   0.777778   0.803167   x 
            x  O           47         0.222222   0.879778   0.803167   x 
            x  O           48         0.120222   0.675778   0.803167   x 
            x  O           49         0.213111   0.888889   0.960633   x 
            x  O           50         0.111111   0.990889   0.960633   x 
            x  O           51         0.009111   0.786889   0.960633   x 
            x  O           52         0.231333   0.666667   0.881900   x 
            x  O           53         0.000000   0.898000   0.881900   x 
            x  O           54         0.102000   0.768667   0.881900   x 
            x  O           55         0.435333   0.000000   0.645700   x 
            x  O           56         0.333333   0.102000   0.645700   x 
            x  O           57         0.564667   0.231333   0.645700   x 
            x  O           58         0.342444   0.222222   0.724433   x 
            x  O           59         0.444444   0.120222   0.724433   x 
            x  O           60         0.546444   0.324222   0.724433   x 
            x  O           61         0.453556   0.111111   0.566967   x 
            x  O           62         0.555556   0.009111   0.566967   x 
            x  O           63         0.657556   0.213111   0.566967   x 
            x  O           64         0.657556   0.111111   0.803167   x 
            x  O           65         0.555556   0.213111   0.803167   x 
            x  O           66         0.453556   0.009111   0.803167   x 
            x  O           67         0.546444   0.222222   0.960633   x 
            x  O           68         0.444444   0.324222   0.960633   x 
            x  O           69         0.342444   0.120222   0.960633   x 
            x  O           70         0.564667   0.000000   0.881900   x 
            x  O           71         0.333333   0.231333   0.881900   x 
            x  O           72         0.435333   0.102000   0.881900   x 
            x  O           73         0.435333   0.333333   0.645700   x 
            x  O           74         0.333333   0.435333   0.645700   x 
            x  O           75         0.564667   0.564667   0.645700   x 
            x  O           76         0.342444   0.555556   0.724433   x 
            x  O           77         0.444444   0.453556   0.724433   x 
            x  O           78         0.546444   0.657556   0.724433   x 
            x  O           79         0.453556   0.444444   0.566967   x 
            x  O           80         0.555556   0.342444   0.566967   x 
            x  O           81         0.657556   0.546444   0.566967   x 
            x  O           82         0.657556   0.444444   0.803167   x 
            x  O           83         0.555556   0.546444   0.803167   x 
            x  O           84         0.453556   0.342444   0.803167   x 
            x  O           85         0.546444   0.555556   0.960633   x 
            x  O           86         0.444444   0.657556   0.960633   x 
            x  O           87         0.342444   0.453556   0.960633   x 
            x  O           88         0.564667   0.333333   0.881900   x 
            x  O           89         0.333333   0.564667   0.881900   x 
            x  O           90         0.435333   0.435333   0.881900   x 
            x  O           91         0.435333   0.666667   0.645700   x 
            x  O           92         0.333333   0.768667   0.645700   x 
            x  O           93         0.564667   0.898000   0.645700   x 
            x  O           94         0.342444   0.888889   0.724433   x 
            x  O           95         0.444444   0.786889   0.724433   x 
            x  O           96         0.546444   0.990889   0.724433   x 
            x  O           97         0.453556   0.777778   0.566967   x 
            x  O           98         0.555556   0.675778   0.566967   x 
            x  O           99         0.657556   0.879778   0.566967   x 
            x  O          100         0.657556   0.777778   0.803167   x 
            x  O          101         0.555556   0.879778   0.803167   x 
            x  O          102         0.453556   0.675778   0.803167   x 
            x  O          103         0.546444   0.888889   0.960633   x 
            x  O          104         0.444444   0.990889   0.960633   x 
            x  O          105         0.342444   0.786889   0.960633   x 
            x  O          106         0.564667   0.666667   0.881900   x 
            x  O          107         0.333333   0.898000   0.881900   x 
            x  O          108         0.435333   0.768667   0.881900   x 
            x  O          109         0.768667   0.000000   0.645700   x 
            x  O          110         0.666667   0.102000   0.645700   x 
            x  O          111         0.898000   0.231333   0.645700   x 
            x  O          112         0.675778   0.222222   0.724433   x 
            x  O          113         0.777778   0.120222   0.724433   x 
            x  O          114         0.879778   0.324222   0.724433   x 
            x  O          115         0.786889   0.111111   0.566967   x 
            x  O          116         0.888889   0.009111   0.566967   x 
            x  O          117         0.990889   0.213111   0.566967   x 
            x  O          118         0.990889   0.111111   0.803167   x 
            x  O          119         0.888889   0.213111   0.803167   x 
            x  O          120         0.786889   0.009111   0.803167   x 
            x  O          121         0.879778   0.222222   0.960633   x 
            x  O          122         0.777778   0.324222   0.960633   x 
            x  O          123         0.675778   0.120222   0.960633   x 
            x  O          124         0.898000   0.000000   0.881900   x 
            x  O          125         0.666667   0.231333   0.881900   x 
            x  O          126         0.768667   0.102000   0.881900   x 
            x  O          127         0.768667   0.333333   0.645700   x 
            x  O          128         0.666667   0.435333   0.645700   x 
            x  O          129         0.898000   0.564667   0.645700   x 
            x  O          130         0.675778   0.555556   0.724433   x 
            x  O          131         0.777778   0.453556   0.724433   x 
            x  O          132         0.879778   0.657556   0.724433   x 
            x  O          133         0.786889   0.444444   0.566967   x 
            x  O          134         0.888889   0.342444   0.566967   x 
            x  O          135         0.990889   0.546444   0.566967   x 
            x  O          136         0.990889   0.444444   0.803167   x 
            x  O          137         0.888889   0.546444   0.803167   x 
            x  O          138         0.786889   0.342444   0.803167   x 
            x  O          139         0.879778   0.555556   0.960633   x 
            x  O          140         0.777778   0.657556   0.960633   x 
            x  O          141         0.675778   0.453556   0.960633   x 
            x  O          142         0.898000   0.333333   0.881900   x 
            x  O          143         0.666667   0.564667   0.881900   x 
            x  O          144         0.768667   0.435333   0.881900   x 
            x  O          145         0.768667   0.666667   0.645700   x 
            x  O          146         0.666667   0.768667   0.645700   x 
            x  O          147         0.898000   0.898000   0.645700   x 
            x  O          148         0.675778   0.888889   0.724433   x 
            x  O          149         0.777778   0.786889   0.724433   x 
            x  O          150         0.879778   0.990889   0.724433   x 
            x  O          151         0.786889   0.777778   0.566967   x 
            x  O          152         0.888889   0.675778   0.566967   x 
            x  O          153         0.990889   0.879778   0.566967   x 
            x  O          154         0.990889   0.777778   0.803167   x 
            x  O          155         0.888889   0.879778   0.803167   x 
            x  O          156         0.786889   0.675778   0.803167   x 
            x  O          157         0.879778   0.888889   0.960633   x 
            x  O          158         0.777778   0.990889   0.960633   x 
            x  O          159         0.675778   0.786889   0.960633   x 
            x  O          160         0.898000   0.666667   0.881900   x 
            x  O          161         0.666667   0.898000   0.881900   x 
            x  O          162         0.768667   0.768667   0.881900   x 
            x  Al           1         0.000000   0.000000   0.693885   x 
            x  Al           2         0.000000   0.000000   0.597515   x 
            x  Al           3         0.222222   0.111111   0.615151   x 
            x  Al           4         0.111111   0.222222   0.676249   x 
            x  Al           5         0.222222   0.111111   0.754982   x 
            x  Al           6         0.111111   0.222222   0.772618   x 
            x  Al           7         0.222222   0.111111   0.991182   x 
            x  Al           8         0.111111   0.222222   0.536418   x 
            x  Al           9         0.000000   0.000000   0.833715   x 
            x  Al          10         0.222222   0.111111   0.851351   x 
            x  Al          11         0.000000   0.000000   0.930085   x 
            x  Al          12         0.111111   0.222222   0.912449   x 
            x  Al          13         0.000000   0.333333   0.693885   x 
            x  Al          14         0.000000   0.333333   0.597515   x 
            x  Al          15         0.222222   0.444444   0.615151   x 
            x  Al          16         0.111111   0.555556   0.676249   x 
            x  Al          17         0.222222   0.444444   0.754982   x 
            x  Al          18         0.111111   0.555556   0.772618   x 
            x  Al          19         0.222222   0.444444   0.991182   x 
            x  Al          20         0.111111   0.555556   0.536418   x 
            x  Al          21         0.000000   0.333333   0.833715   x 
            x  Al          22         0.222222   0.444444   0.851351   x 
            x  Al          23         0.000000   0.333333   0.930085   x 
            x  Al          24         0.111111   0.555556   0.912449   x 
            x  Al          25         0.000000   0.666667   0.693885   x 
            x  Al          26         0.000000   0.666667   0.597515   x 
            x  Al          27         0.222222   0.777778   0.615151   x 
            x  Al          28         0.111111   0.888889   0.676249   x 
            x  Al          29         0.222222   0.777778   0.754982   x 
            x  Al          30         0.111111   0.888889   0.772618   x 
            x  Al          31         0.222222   0.777778   0.991182   x 
            x  Al          32         0.111111   0.888889   0.536418   x 
            x  Al          33         0.000000   0.666667   0.833715   x 
            x  Al          34         0.222222   0.777778   0.851351   x 
            x  Al          35         0.000000   0.666667   0.930085   x 
            x  Al          36         0.111111   0.888889   0.912449   x 
            x  Al          37         0.333333   0.000000   0.693885   x 
            x  Al          38         0.333333   0.000000   0.597515   x 
            x  Al          39         0.555556   0.111111   0.615151   x 
            x  Al          40         0.444444   0.222222   0.676249   x 
            x  Al          41         0.555556   0.111111   0.754982   x 
            x  Al          42         0.444444   0.222222   0.772618   x 
            x  Al          43         0.555556   0.111111   0.991182   x 
            x  Al          44         0.444444   0.222222   0.536418   x 
            x  Al          45         0.333333   0.000000   0.833715   x 
            x  Al          46         0.555556   0.111111   0.851351   x 
            x  Al          47         0.333333   0.000000   0.930085   x 
            x  Al          48         0.444444   0.222222   0.912449   x 
            x  Al          49         0.333333   0.333333   0.693885   x 
            x  Al          50         0.333333   0.333333   0.597515   x 
            x  Al          51         0.555556   0.444444   0.615151   x 
            x  Al          52         0.444444   0.555556   0.676249   x 
            x  Al          53         0.555556   0.444444   0.754982   x 
            x  Al          54         0.444444   0.555556   0.772618   x 
            x  Al          55         0.555556   0.444444   0.991182   x 
            x  Al          56         0.444444   0.555556   0.536418   x 
            x  Al          57         0.333333   0.333333   0.833715   x 
            x  Al          58         0.555556   0.444444   0.851351   x 
            x  Al          59         0.333333   0.333333   0.930085   x 
            x  Al          60         0.444444   0.555556   0.912449   x 
            x  Al          61         0.333333   0.666667   0.693885   x 
            x  Al          62         0.333333   0.666667   0.597515   x 
            x  Al          63         0.555556   0.777778   0.615151   x 
            x  Al          64         0.444444   0.888889   0.676249   x 
            x  Al          65         0.555556   0.777778   0.754982   x 
            x  Al          66         0.444444   0.888889   0.772618   x 
            x  Al          67         0.555556   0.777778   0.991182   x 
            x  Al          68         0.444444   0.888889   0.536418   x 
            x  Al          69         0.333333   0.666667   0.833715   x 
            x  Al          70         0.555556   0.777778   0.851351   x 
            x  Al          71         0.333333   0.666667   0.930085   x 
            x  Al          72         0.444444   0.888889   0.912449   x 
            x  Al          73         0.666667   0.000000   0.693885   x 
            x  Al          74         0.666667   0.000000   0.597515   x 
            x  Al          75         0.888889   0.111111   0.615151   x 
            x  Al          76         0.777778   0.222222   0.676249   x 
            x  Al          77         0.888889   0.111111   0.754982   x 
            x  Al          78         0.777778   0.222222   0.772618   x 
            x  Al          79         0.888889   0.111111   0.991182   x 
            x  Al          80         0.777778   0.222222   0.536418   x 
            x  Al          81         0.666667   0.000000   0.833715   x 
            x  Al          82         0.888889   0.111111   0.851351   x 
            x  Al          83         0.666667   0.000000   0.930085   x 
            x  Al          84         0.777778   0.222222   0.912449   x 
            x  Al          85         0.666667   0.333333   0.693885   x 
            x  Al          86         0.666667   0.333333   0.597515   x 
            x  Al          87         0.888889   0.444444   0.615151   x 
            x  Al          88         0.777778   0.555556   0.676249   x 
            x  Al          89         0.888889   0.444444   0.754982   x 
            x  Al          90         0.777778   0.555556   0.772618   x 
            x  Al          91         0.888889   0.444444   0.991182   x 
            x  Al          92         0.777778   0.555556   0.536418   x 
            x  Al          93         0.666667   0.333333   0.833715   x 
            x  Al          94         0.888889   0.444444   0.851351   x 
            x  Al          95         0.666667   0.333333   0.930085   x 
            x  Al          96         0.777778   0.555556   0.912449   x 
            x  Al          97         0.666667   0.666667   0.693885   x 
            x  Al          98         0.666667   0.666667   0.597515   x 
            x  Al          99         0.888889   0.777778   0.615151   x 
            x  Al         100         0.777778   0.888889   0.676249   x 
            x  Al         101         0.888889   0.777778   0.754982   x 
            x  Al         102         0.777778   0.888889   0.772618   x 
            x  Al         103         0.888889   0.777778   0.991182   x 
            x  Al         104         0.777778   0.888889   0.536418   x 
            x  Al         105         0.666667   0.666667   0.833715   x 
            x  Al         106         0.888889   0.777778   0.851351   x 
            x  Al         107         0.666667   0.666667   0.930085   x 
            x  Al         108         0.777778   0.888889   0.912449   x 
            xxxxxxxxxxxxxxxxxxxxxxxxxxxxxxxxxxxxxxxxxxxxxxxxxxxxxxxxxxxx
 
 
                         No user defined ionic velocities
 
                           -------------------------------
                                   Details of Species
                           -------------------------------
 
                               Mass of species in AMU
                                    O   15.9994000
                                    Al   26.9815400
 
                          Electric Quadrupole Moment (Barn)
                                    O   -0.0255800 Isotope 17
                                    Al    0.1466000 Isotope 27
 
                          Files used for pseudopotentials:
                                    O O_00.usp
                                    Al Al_00.usp
 
                           -------------------------------
                              k-Points For BZ Sampling
                           -------------------------------
                       MP grid size for SCF calculation is  2  2  1
                            with an offset of   0.000  0.000  0.000
                       Number of kpoints used =             2
 
                           -------------------------------
                               Symmetry and Constraints
                           -------------------------------
 
                      Cell is a supercell containing 9 primitive cells
                      Maximum deviation from symmetry =  0.00000         ANG
 
                      Number of symmetry operations   =           1
                      Number of ionic constraints     =           3
                      Point group of crystal =     1: C1, 1, 1
                      Space group of crystal =   147: P-3, -P 3
 
             Set iprint > 1 for details on symmetry rotations/translations
 
                         Centre of mass is constrained
             Set iprint > 1 for details of linear ionic constraints
 
                         Number of cell constraints= 0
                         Cell constraints are:  1 2 3 4 5 6
 
                         External pressure/stress (GPa)
                          0.00000   0.00000   0.00000
                                    0.00000   0.00000
                                              0.00000
  
+---------------- MEMORY AND SCRATCH DISK ESTIMATES PER PROCESS --------------+
|                                                     Memory          Disk    |
| Baseline code, static data and system overhead      509.0 MB         0.0 MB |
| BLAS internal memory storage                          0.0 MB         0.0 MB |
| Model and support data                              269.7 MB         0.0 MB |
| Electronic energy minimisation requirements         238.0 MB         0.0 MB |
| Force calculation requirements                        7.5 MB         0.0 MB |
|                                               ----------------------------- |
| Approx. total storage required per process         1016.7 MB         0.0 MB |
|                                                                             |
| Requirements will fluctuate during execution and may exceed these estimates |
+-----------------------------------------------------------------------------+
Calculating total energy with cut-off of  400.000 eV.
------------------------------------------------------------------------ <-- SCF
SCF loop      Energy           Fermi           Energy gain       Timer   <-- SCF
                               energy          per atom          (sec)   <-- SCF
------------------------------------------------------------------------ <-- SCF
Initial  -5.93903672E+004  0.00000000E+000                         4.64  <-- SCF
      1  -7.24063423E+004  4.07139295E+000   4.82073150E+001      70.78  <-- SCF
      2  -7.78243863E+004  1.91681073E+000   2.00668297E+001     113.31  <-- SCF
      3  -7.79864583E+004  1.80117454E+000   6.00266773E-001     155.93  <-- SCF
      4  -7.78412882E+004  1.95977525E+000  -5.37666993E-001     214.04  <-- SCF
      5  -7.77211094E+004  1.34872580E+000  -4.45106878E-001     272.06  <-- SCF
      6  -7.77152146E+004  1.12201409E+000  -2.18324022E-002     335.05  <-- SCF
      7  -7.77129444E+004  1.05280451E+000  -8.40826765E-003     392.01  <-- SCF
      8  -7.77104446E+004  1.02759375E+000  -9.25858065E-003     450.13  <-- SCF
      9  -7.77084246E+004  9.96323769E-001  -7.48134390E-003     507.10  <-- SCF
     10  -7.77059628E+004  1.11185787E+000  -9.11777166E-003     563.88  <-- SCF
     11  -7.77052049E+004  1.16261107E+000  -2.80703306E-003     619.02  <-- SCF
------------------------------------------------------------------------ <-- SCF
 
Final energy, E             =  -77705.20493381     eV
Final free energy (E-TS)    =  -77705.20493381     eV
(energies not corrected for finite basis set)
 
NB est. 0K energy (E-0.5TS)      =  -77705.20493381     eV
 

Writing analysis data to al3x3.castep_bin

Writing model to al3x3.check
 
 ******************* Unconstrained Forces *******************
 *                                                          *
 *               Cartesian components (eV/A)                *
 * -------------------------------------------------------- *
 *                         x            y            z      *
 *                                                          *
 * O               1      0.16335      0.03037      0.84532 *
 * O               2     -0.10132      0.12666      0.84234 *
 * O               3     -0.05723     -0.14864      0.83888 *
 * O               4     -0.10853      0.02483      0.38809 *
 * O               5      0.01847     -0.09777      0.38739 *
 * O               6      0.07049      0.06676      0.39068 *
 * O               7     -1.65101      1.75166     -1.01547 *
 * O               8     -0.70128     -2.31054     -1.01950 *
 * O               9      2.34713      0.55889     -1.02956 *
 * O              10      0.08380     -0.01683     -0.39502 *
 * O              11     -0.02495      0.07969     -0.39697 *
 * O              12     -0.06311     -0.05804     -0.39565 *
 * O              13      1.65829     -1.77713      0.96352 *
 * O              14      0.70240      2.32590      0.96302 *
 * O              15     -2.36174     -0.54883      0.96497 *
 * O              16     -0.17114     -0.01617     -0.79982 *
 * O              17      0.09689     -0.14105     -0.79146 *
 * O              18      0.07466      0.15611     -0.79303 *
 * O              19      0.16283      0.01980      0.85176 *
 * O              20     -0.10528      0.12694      0.84893 *
 * O              21     -0.05892     -0.14752      0.84902 *
 * O              22     -0.10329      0.02057      0.38525 *
 * O              23      0.02171     -0.09776      0.39232 *
 * O              24      0.06994      0.08003      0.38531 *
 * O              25     -1.66940      1.78039     -1.01044 *
 * O              26     -0.67543     -2.27834     -1.03258 *
 * O              27      2.35985      0.55191     -1.02319 *
 * O              28      0.08571     -0.01568     -0.39235 *
 * O              29     -0.02412      0.07950     -0.39503 *
 * O              30     -0.05707     -0.06027     -0.39379 *
 * O              31      1.66462     -1.78759      0.94659 *
 * O              32      0.69876      2.30736      0.96428 *
 * O              33     -2.37576     -0.55122      0.95360 *
 * O              34     -0.16644     -0.01407     -0.79398 *
 * O              35      0.09747     -0.13844     -0.78657 *
 * O              36      0.07292      0.15104     -0.79491 *
 * O              37      0.16520      0.02012      0.84359 *
 * O              38     -0.10244      0.12226      0.84028 *
 * O              39     -0.06457     -0.14783      0.84519 *
 * O              40     -0.10380      0.02299      0.39040 *
 * O              41      0.01547     -0.09553      0.39328 *
 * O              42      0.07500      0.07473      0.38834 *
 * O              43     -1.65182      1.75405     -1.01523 *
 * O              44     -0.68499     -2.27994     -1.02385 *
 * O              45      2.35932      0.55153     -1.00912 *
 * O              46      0.07990     -0.01743     -0.39535 *
 * O              47     -0.02303      0.07760     -0.39498 *
 * O              48     -0.05775     -0.06634     -0.39145 *
 * O              49      1.65843     -1.78180      0.95135 *
 * O              50      0.71169      2.32206      0.96332 *
 * O              51     -2.36906     -0.54863      0.96562 *
 * O              52     -0.17361     -0.01070     -0.79316 *
 * O              53      0.08977     -0.13611     -0.79157 *
 * O              54      0.07386      0.14891     -0.79073 *
 * O              55      0.16316      0.02545      0.84716 *
 * O              56     -0.10383      0.12580      0.84321 *
 * O              57     -0.06012     -0.14794      0.84563 *
 * O              58     -0.10001      0.02275      0.38788 *
 * O              59      0.01860     -0.09980      0.38766 *
 * O              60      0.07969      0.07587      0.38692 *
 * O              61     -1.65385      1.75830     -1.02476 *
 * O              62     -0.68658     -2.29281     -1.01835 *
 * O              63      2.33952      0.54933     -1.02260 *
 * O              64      0.08467     -0.01615     -0.38836 *
 * O              65     -0.02258      0.08012     -0.39883 *
 * O              66     -0.06000     -0.06067     -0.39783 *
 * O              67      1.66042     -1.78619      0.95458 *
 * O              68      0.70570      2.32136      0.96831 *
 * O              69     -2.34808     -0.54333      0.96873 *
 * O              70     -0.17533     -0.01076     -0.79513 *
 * O              71      0.09599     -0.14321     -0.78568 *
 * O              72      0.06956      0.15111     -0.79078 *
 * O              73      0.15838      0.02890      0.84894 *
 * O              74     -0.10670      0.12900      0.83927 *
 * O              75     -0.06236     -0.14750      0.84718 *
 * O              76     -0.10414      0.02448      0.38825 *
 * O              77      0.02556     -0.10221      0.38990 *
 * O              78      0.08078      0.07362      0.39117 *
 * O              79     -1.66524      1.76176     -1.02070 *
 * O              80     -0.70702     -2.32255     -1.01854 *
 * O              81      2.38895      0.55972     -1.01709 *
 * O              82      0.08191     -0.02125     -0.39572 *
 * O              83     -0.02475      0.08476     -0.39476 *
 * O              84     -0.06200     -0.06303     -0.39565 *
 * O              85      1.65738     -1.79359      0.94820 *
 * O              86      0.70571      2.32453      0.96041 *
 * O              87     -2.32041     -0.54510      0.97317 *
 * O              88     -0.17248     -0.01311     -0.79545 *
 * O              89      0.09315     -0.14052     -0.79090 *
 * O              90      0.06834      0.15008     -0.78771 *
 * O              91      0.16487      0.02277      0.84822 *
 * O              92     -0.10481      0.12620      0.83871 *
 * O              93     -0.06553     -0.15224      0.84515 *
 * O              94     -0.10210      0.01816      0.38928 *
 * O              95      0.01996     -0.10054      0.39452 *
 * O              96      0.07943      0.07893      0.38405 *
 * O              97     -1.65988      1.75436     -1.01723 *
 * O              98     -0.69796     -2.31748     -1.01958 *
 * O              99      2.34407      0.55907     -1.02767 *
 * O             100      0.08610     -0.01827     -0.39615 *
 * O             101     -0.02250      0.07931     -0.39878 *
 * O             102     -0.05853     -0.06792     -0.38883 *
 * O             103      1.66860     -1.79392      0.95022 *
 * O             104      0.69516      2.29443      0.96635 *
 * O             105     -2.34479     -0.54225      0.96248 *
 * O             106     -0.17171     -0.01451     -0.79511 *
 * O             107      0.09873     -0.14109     -0.78238 *
 * O             108      0.06757      0.15173     -0.79231 *
 * O             109      0.16404      0.01925      0.84275 *
 * O             110     -0.10713      0.12024      0.84230 *
 * O             111     -0.06026     -0.14482      0.84624 *
 * O             112     -0.10387      0.02623      0.38952 *
 * O             113      0.02250     -0.10111      0.38706 *
 * O             114      0.07617      0.06987      0.38563 *
 * O             115     -1.67580      1.76682     -1.01995 *
 * O             116     -0.69283     -2.30679     -1.02184 *
 * O             117      2.36511      0.55749     -1.01798 *
 * O             118      0.08818     -0.01779     -0.39129 *
 * O             119     -0.02306      0.08210     -0.39865 *
 * O             120     -0.05824     -0.06202     -0.39081 *
 * O             121      1.65977     -1.78037      0.95078 *
 * O             122      0.69047      2.28853      0.96196 *
 * O             123     -2.36831     -0.54237      0.95821 *
 * O             124     -0.17334     -0.01253     -0.79110 *
 * O             125      0.09904     -0.13938     -0.78962 *
 * O             126      0.07622      0.14976     -0.79610 *
 * O             127      0.16416      0.02924      0.84284 *
 * O             128     -0.10284      0.12549      0.84924 *
 * O             129     -0.06042     -0.14627      0.84455 *
 * O             130     -0.09808      0.02053      0.39047 *
 * O             131      0.02389     -0.09402      0.38943 *
 * O             132      0.07243      0.07795      0.38290 *
 * O             133     -1.65064      1.74069     -1.01996 *
 * O             134     -0.68767     -2.29039     -1.02361 *
 * O             135      2.37983      0.56081     -1.01615 *
 * O             136      0.07963     -0.01275     -0.39419 *
 * O             137     -0.02407      0.08108     -0.39142 *
 * O             138     -0.05742     -0.06237     -0.39391 *
 * O             139      1.64947     -1.76787      0.95174 *
 * O             140      0.70797      2.31814      0.95283 *
 * O             141     -2.36476     -0.54165      0.96220 *
 * O             142     -0.17003     -0.01279     -0.79347 *
 * O             143      0.09463     -0.14082     -0.79023 *
 * O             144      0.07500      0.14713     -0.79315 *
 * O             145      0.16178      0.02414      0.84372 *
 * O             146     -0.10489      0.12533      0.84045 *
 * O             147     -0.06127     -0.15178      0.84608 *
 * O             148     -0.10398      0.02348      0.39018 *
 * O             149      0.01836     -0.09752      0.39067 *
 * O             150      0.07510      0.07490      0.39203 *
 * O             151     -1.65182      1.75033     -1.00910 *
 * O             152     -0.67427     -2.27243     -1.02300 *
 * O             153      2.36422      0.54935     -1.01277 *
 * O             154      0.08357     -0.01694     -0.39460 *
 * O             155     -0.02842      0.07786     -0.39869 *
 * O             156     -0.05933     -0.06475     -0.40033 *
 * O             157      1.64171     -1.76301      0.95466 *
 * O             158      0.70095      2.30716      0.96665 *
 * O             159     -2.33529     -0.54905      0.96704 *
 * O             160     -0.17241     -0.00727     -0.79430 *
 * O             161      0.09114     -0.14047     -0.79068 *
 * O             162      0.07301      0.15479     -0.78682 *
 * Al              1     -0.00144     -0.00053     -0.01396 *
 * Al              2     -0.00094      0.00975     -0.85558 *
 * Al              3     -0.00145     -0.00002     -1.96903 *
 * Al              4     -0.00088     -0.00011     -0.22477 *
 * Al              5     -0.00138     -0.00038     -0.08398 *
 * Al              6     -0.00081      0.00020      0.08520 *
 * Al              7      0.01045     -0.00669     -7.28953 *
 * Al              8      0.02404      0.00589      7.29272 *
 * Al              9     -0.00093     -0.00032      0.02001 *
 * Al             10     -0.00096     -0.00009      0.24566 *
 * Al             11     -0.00606     -0.00048      0.85895 *
 * Al             12     -0.00359      0.00122      1.97241 *
 * Al             13     -0.00112     -0.00058     -0.01473 *
 * Al             14     -0.01797      0.00662     -0.85287 *
 * Al             15      0.00355     -0.01302     -1.96929 *
 * Al             16     -0.00100     -0.00006     -0.22546 *
 * Al             17     -0.00173     -0.00065     -0.08361 *
 * Al             18     -0.00083     -0.00041      0.08512 *
 * Al             19      0.01510     -0.01496     -7.29047 *
 * Al             20      0.02776      0.01800      7.28898 *
 * Al             21     -0.00089     -0.00074      0.01999 *
 * Al             22     -0.00094     -0.00002      0.24507 *
 * Al             23      0.00375     -0.00251      0.85468 *
 * Al             24     -0.00236      0.00530      1.97210 *
 * Al             25     -0.00064     -0.00025     -0.01425 *
 * Al             26     -0.01114      0.02203     -0.85868 *
 * Al             27     -0.00512     -0.01016     -1.97273 *
 * Al             28     -0.00091     -0.00008     -0.22486 *
 * Al             29     -0.00166     -0.00049     -0.08364 *
 * Al             30     -0.00079     -0.00036      0.08532 *
 * Al             31      0.00253     -0.01264     -7.29039 *
 * Al             32      0.00808     -0.00669      7.29004 *
 * Al             33     -0.00072     -0.00051      0.01984 *
 * Al             34     -0.00063     -0.00010      0.24486 *
 * Al             35     -0.00013     -0.00698      0.86129 *
 * Al             36     -0.00211      0.00059      1.97041 *
 * Al             37     -0.00143     -0.00026     -0.01436 *
 * Al             38     -0.00217      0.00481     -0.85285 *
 * Al             39      0.00139     -0.00571     -1.97289 *
 * Al             40     -0.00134     -0.00015     -0.22511 *
 * Al             41     -0.00132     -0.00086     -0.08371 *
 * Al             42     -0.00091     -0.00026      0.08510 *
 * Al             43     -0.01192     -0.01301     -7.28892 *
 * Al             44     -0.00505      0.00094      7.29082 *
 * Al             45     -0.00107     -0.00061      0.01988 *
 * Al             46     -0.00128     -0.00067      0.24488 *
 * Al             47      0.01017      0.00312      0.86400 *
 * Al             48     -0.00785     -0.00089      1.97463 *
 * Al             49     -0.00121     -0.00069     -0.01414 *
 * Al             50     -0.01459      0.00773     -0.86346 *
 * Al             51     -0.00761     -0.00353     -1.95929 *
 * Al             52     -0.00102      0.00022     -0.22492 *
 * Al             53     -0.00162     -0.00031     -0.08385 *
 * Al             54     -0.00070      0.00012      0.08542 *
 * Al             55      0.00125     -0.00809     -7.28782 *
 * Al             56      0.00386      0.00133      7.29147 *
 * Al             57     -0.00103     -0.00074      0.01971 *
 * Al             58     -0.00099     -0.00047      0.24528 *
 * Al             59      0.00215      0.01591      0.86278 *
 * Al             60     -0.01198     -0.00343      1.97668 *
 * Al             61     -0.00107     -0.00051     -0.01421 *
 * Al             62     -0.01196      0.01009     -0.86232 *
 * Al             63     -0.00166     -0.00171     -1.96881 *
 * Al             64     -0.00078     -0.00071     -0.22447 *
 * Al             65     -0.00190     -0.00068     -0.08359 *
 * Al             66     -0.00065     -0.00015      0.08504 *
 * Al             67      0.01368     -0.01879     -7.28773 *
 * Al             68      0.01652      0.00271      7.29120 *
 * Al             69     -0.00044     -0.00100      0.01969 *
 * Al             70     -0.00096     -0.00056      0.24521 *
 * Al             71      0.00238      0.01138      0.85849 *
 * Al             72     -0.01140      0.00624      1.97605 *
 * Al             73     -0.00168     -0.00035     -0.01450 *
 * Al             74     -0.01524      0.00296     -0.85734 *
 * Al             75     -0.00067     -0.00606     -1.96269 *
 * Al             76     -0.00139     -0.00020     -0.22489 *
 * Al             77     -0.00185     -0.00062     -0.08388 *
 * Al             78     -0.00131     -0.00046      0.08532 *
 * Al             79     -0.00512     -0.00907     -7.28901 *
 * Al             80      0.00543      0.01681      7.29195 *
 * Al             81     -0.00128     -0.00067      0.01983 *
 * Al             82     -0.00059     -0.00050      0.24545 *
 * Al             83      0.01264      0.00148      0.85399 *
 * Al             84     -0.00300      0.00977      1.97811 *
 * Al             85     -0.00131     -0.00047     -0.01416 *
 * Al             86      0.00644     -0.00134     -0.85921 *
 * Al             87     -0.00972     -0.00830     -1.96950 *
 * Al             88     -0.00156     -0.00019     -0.22460 *
 * Al             89     -0.00178     -0.00038     -0.08367 *
 * Al             90     -0.00117     -0.00031      0.08468 *
 * Al             91     -0.02025     -0.00398     -7.29060 *
 * Al             92      0.03337     -0.00439      7.29189 *
 * Al             93     -0.00094     -0.00012      0.01978 *
 * Al             94     -0.00116     -0.00044      0.24527 *
 * Al             95      0.01500     -0.00588      0.86243 *
 * Al             96     -0.00010     -0.00095      1.97574 *
 * Al             97     -0.00096     -0.00056     -0.01423 *
 * Al             98      0.00160      0.01666     -0.85285 *
 * Al             99     -0.00641     -0.01068     -1.97357 *
 * Al            100     -0.00084     -0.00025     -0.22476 *
 * Al            101     -0.00168     -0.00025     -0.08407 *
 * Al            102     -0.00102     -0.00026      0.08539 *
 * Al            103     -0.00418      0.00594     -7.28917 *
 * Al            104      0.00322     -0.00315      7.29239 *
 * Al            105     -0.00113     -0.00008      0.02007 *
 * Al            106     -0.00147     -0.00015      0.24538 *
 * Al            107      0.00556      0.01169      0.85949 *
 * Al            108     -0.00449     -0.00157      1.98188 *
 *                                                          *
 ************************************************************
 
 ******************** Constrained Forces ********************
 *                                                          *
 *               Cartesian components (eV/A)                *
 * -------------------------------------------------------- *
 *                         x            y            z      *
 *                                                          *
 * O               1      0.16335      0.03037      0.84532 *
 * O               2     -0.10132      0.12666      0.84234 *
 * O               3     -0.05723     -0.14864      0.83888 *
 * O               4     -0.10853      0.02483      0.38809 *
 * O               5      0.01847     -0.09777      0.38739 *
 * O               6      0.07049      0.06676      0.39068 *
 * O               7     -1.65101      1.75166     -1.01547 *
 * O               8     -0.70128     -2.31054     -1.01950 *
 * O               9      2.34713      0.55889     -1.02956 *
 * O              10      0.08380     -0.01683     -0.39502 *
 * O              11     -0.02495      0.07969     -0.39697 *
 * O              12     -0.06311     -0.05804     -0.39565 *
 * O              13      1.65829     -1.77713      0.96352 *
 * O              14      0.70240      2.32590      0.96302 *
 * O              15     -2.36174     -0.54883      0.96497 *
 * O              16     -0.17114     -0.01617     -0.79982 *
 * O              17      0.09689     -0.14105     -0.79146 *
 * O              18      0.07466      0.15611     -0.79303 *
 * O              19      0.16283      0.01980      0.85176 *
 * O              20     -0.10528      0.12694      0.84893 *
 * O              21     -0.05892     -0.14752      0.84902 *
 * O              22     -0.10329      0.02057      0.38525 *
 * O              23      0.02171     -0.09776      0.39232 *
 * O              24      0.06994      0.08003      0.38531 *
 * O              25     -1.66940      1.78039     -1.01044 *
 * O              26     -0.67543     -2.27834     -1.03258 *
 * O              27      2.35985      0.55191     -1.02319 *
 * O              28      0.08571     -0.01568     -0.39235 *
 * O              29     -0.02412      0.07950     -0.39503 *
 * O              30     -0.05707     -0.06027     -0.39379 *
 * O              31      1.66462     -1.78759      0.94659 *
 * O              32      0.69876      2.30736      0.96428 *
 * O              33     -2.37576     -0.55122      0.95360 *
 * O              34     -0.16644     -0.01407     -0.79398 *
 * O              35      0.09747     -0.13844     -0.78657 *
 * O              36      0.07292      0.15104     -0.79491 *
 * O              37      0.16520      0.02012      0.84359 *
 * O              38     -0.10244      0.12226      0.84028 *
 * O              39     -0.06457     -0.14783      0.84519 *
 * O              40     -0.10380      0.02299      0.39040 *
 * O              41      0.01547     -0.09553      0.39328 *
 * O              42      0.07500      0.07473      0.38834 *
 * O              43     -1.65182      1.75405     -1.01523 *
 * O              44     -0.68499     -2.27994     -1.02385 *
 * O              45      2.35932      0.55153     -1.00912 *
 * O              46      0.07990     -0.01743     -0.39535 *
 * O              47     -0.02303      0.07760     -0.39498 *
 * O              48     -0.05775     -0.06634     -0.39145 *
 * O              49      1.65843     -1.78180      0.95135 *
 * O              50      0.71169      2.32206      0.96332 *
 * O              51     -2.36906     -0.54863      0.96562 *
 * O              52     -0.17361     -0.01070     -0.79316 *
 * O              53      0.08977     -0.13611     -0.79157 *
 * O              54      0.07386      0.14891     -0.79073 *
 * O              55      0.16316      0.02545      0.84716 *
 * O              56     -0.10383      0.12580      0.84321 *
 * O              57     -0.06012     -0.14794      0.84563 *
 * O              58     -0.10001      0.02275      0.38788 *
 * O              59      0.01860     -0.09980      0.38766 *
 * O              60      0.07969      0.07587      0.38692 *
 * O              61     -1.65385      1.75830     -1.02476 *
 * O              62     -0.68658     -2.29281     -1.01835 *
 * O              63      2.33952      0.54933     -1.02260 *
 * O              64      0.08467     -0.01615     -0.38836 *
 * O              65     -0.02258      0.08012     -0.39883 *
 * O              66     -0.06000     -0.06067     -0.39783 *
 * O              67      1.66042     -1.78619      0.95458 *
 * O              68      0.70570      2.32136      0.96831 *
 * O              69     -2.34808     -0.54333      0.96873 *
 * O              70     -0.17533     -0.01076     -0.79513 *
 * O              71      0.09599     -0.14321     -0.78568 *
 * O              72      0.06956      0.15111     -0.79078 *
 * O              73      0.15838      0.02890      0.84894 *
 * O              74     -0.10670      0.12900      0.83927 *
 * O              75     -0.06236     -0.14750      0.84718 *
 * O              76     -0.10414      0.02448      0.38825 *
 * O              77      0.02556     -0.10221      0.38990 *
 * O              78      0.08078      0.07362      0.39117 *
 * O              79     -1.66524      1.76176     -1.02070 *
 * O              80     -0.70702     -2.32255     -1.01854 *
 * O              81      2.38895      0.55972     -1.01709 *
 * O              82      0.08191     -0.02125     -0.39572 *
 * O              83     -0.02475      0.08476     -0.39476 *
 * O              84     -0.06200     -0.06303     -0.39565 *
 * O              85      1.65738     -1.79359      0.94820 *
 * O              86      0.70571      2.32453      0.96041 *
 * O              87     -2.32041     -0.54510      0.97317 *
 * O              88     -0.17248     -0.01311     -0.79545 *
 * O              89      0.09315     -0.14052     -0.79090 *
 * O              90      0.06834      0.15008     -0.78771 *
 * O              91      0.16487      0.02277      0.84822 *
 * O              92     -0.10481      0.12620      0.83871 *
 * O              93     -0.06553     -0.15224      0.84515 *
 * O              94     -0.10210      0.01816      0.38928 *
 * O              95      0.01996     -0.10054      0.39452 *
 * O              96      0.07943      0.07893      0.38405 *
 * O              97     -1.65988      1.75436     -1.01723 *
 * O              98     -0.69796     -2.31748     -1.01958 *
 * O              99      2.34407      0.55907     -1.02767 *
 * O             100      0.08610     -0.01827     -0.39615 *
 * O             101     -0.02250      0.07931     -0.39878 *
 * O             102     -0.05853     -0.06792     -0.38883 *
 * O             103      1.66860     -1.79392      0.95022 *
 * O             104      0.69516      2.29443      0.96635 *
 * O             105     -2.34479     -0.54225      0.96248 *
 * O             106     -0.17171     -0.01451     -0.79511 *
 * O             107      0.09873     -0.14109     -0.78238 *
 * O             108      0.06757      0.15173     -0.79231 *
 * O             109      0.16404      0.01925      0.84275 *
 * O             110     -0.10713      0.12024      0.84230 *
 * O             111     -0.06026     -0.14482      0.84624 *
 * O             112     -0.10387      0.02623      0.38952 *
 * O             113      0.02250     -0.10111      0.38706 *
 * O             114      0.07617      0.06987      0.38563 *
 * O             115     -1.67580      1.76682     -1.01995 *
 * O             116     -0.69283     -2.30679     -1.02184 *
 * O             117      2.36511      0.55749     -1.01798 *
 * O             118      0.08818     -0.01779     -0.39129 *
 * O             119     -0.02306      0.08210     -0.39865 *
 * O             120     -0.05824     -0.06202     -0.39081 *
 * O             121      1.65977     -1.78037      0.95078 *
 * O             122      0.69047      2.28853      0.96196 *
 * O             123     -2.36831     -0.54237      0.95821 *
 * O             124     -0.17334     -0.01253     -0.79110 *
 * O             125      0.09904     -0.13938     -0.78962 *
 * O             126      0.07622      0.14976     -0.79610 *
 * O             127      0.16416      0.02924      0.84284 *
 * O             128     -0.10284      0.12549      0.84924 *
 * O             129     -0.06042     -0.14627      0.84455 *
 * O             130     -0.09808      0.02053      0.39047 *
 * O             131      0.02389     -0.09402      0.38943 *
 * O             132      0.07243      0.07795      0.38290 *
 * O             133     -1.65064      1.74069     -1.01996 *
 * O             134     -0.68767     -2.29039     -1.02361 *
 * O             135      2.37983      0.56081     -1.01615 *
 * O             136      0.07963     -0.01275     -0.39419 *
 * O             137     -0.02407      0.08108     -0.39142 *
 * O             138     -0.05742     -0.06237     -0.39391 *
 * O             139      1.64947     -1.76787      0.95174 *
 * O             140      0.70797      2.31814      0.95283 *
 * O             141     -2.36476     -0.54165      0.96220 *
 * O             142     -0.17003     -0.01279     -0.79347 *
 * O             143      0.09463     -0.14082     -0.79023 *
 * O             144      0.07500      0.14713     -0.79315 *
 * O             145      0.16178      0.02414      0.84372 *
 * O             146     -0.10489      0.12533      0.84045 *
 * O             147     -0.06127     -0.15178      0.84608 *
 * O             148     -0.10398      0.02348      0.39018 *
 * O             149      0.01836     -0.09752      0.39067 *
 * O             150      0.07510      0.07490      0.39203 *
 * O             151     -1.65182      1.75033     -1.00910 *
 * O             152     -0.67427     -2.27243     -1.02300 *
 * O             153      2.36422      0.54935     -1.01277 *
 * O             154      0.08357     -0.01694     -0.39460 *
 * O             155     -0.02842      0.07786     -0.39869 *
 * O             156     -0.05933     -0.06475     -0.40033 *
 * O             157      1.64171     -1.76301      0.95466 *
 * O             158      0.70095      2.30716      0.96665 *
 * O             159     -2.33529     -0.54905      0.96704 *
 * O             160     -0.17241     -0.00727     -0.79430 *
 * O             161      0.09114     -0.14047     -0.79068 *
 * O             162      0.07301      0.15479     -0.78682 *
 * Al              1     -0.00144     -0.00053     -0.01396 *
 * Al              2     -0.00094      0.00975     -0.85558 *
 * Al              3     -0.00145     -0.00002     -1.96903 *
 * Al              4     -0.00088     -0.00011     -0.22477 *
 * Al              5     -0.00138     -0.00038     -0.08398 *
 * Al              6     -0.00081      0.00020      0.08520 *
 * Al              7      0.01045     -0.00669     -7.28953 *
 * Al              8      0.02404      0.00589      7.29272 *
 * Al              9     -0.00093     -0.00032      0.02001 *
 * Al             10     -0.00096     -0.00009      0.24566 *
 * Al             11     -0.00606     -0.00048      0.85895 *
 * Al             12     -0.00359      0.00122      1.97241 *
 * Al             13     -0.00112     -0.00058     -0.01473 *
 * Al             14     -0.01797      0.00662     -0.85287 *
 * Al             15      0.00355     -0.01302     -1.96929 *
 * Al             16     -0.00100     -0.00006     -0.22546 *
 * Al             17     -0.00173     -0.00065     -0.08361 *
 * Al             18     -0.00083     -0.00041      0.08512 *
 * Al             19      0.01510     -0.01496     -7.29047 *
 * Al             20      0.02776      0.01800      7.28898 *
 * Al             21     -0.00089     -0.00074      0.01999 *
 * Al             22     -0.00094     -0.00002      0.24507 *
 * Al             23      0.00375     -0.00251      0.85468 *
 * Al             24     -0.00236      0.00530      1.97210 *
 * Al             25     -0.00064     -0.00025     -0.01425 *
 * Al             26     -0.01114      0.02203     -0.85868 *
 * Al             27     -0.00512     -0.01016     -1.97273 *
 * Al             28     -0.00091     -0.00008     -0.22486 *
 * Al             29     -0.00166     -0.00049     -0.08364 *
 * Al             30     -0.00079     -0.00036      0.08532 *
 * Al             31      0.00253     -0.01264     -7.29039 *
 * Al             32      0.00808     -0.00669      7.29004 *
 * Al             33     -0.00072     -0.00051      0.01984 *
 * Al             34     -0.00063     -0.00010      0.24486 *
 * Al             35     -0.00013     -0.00698      0.86129 *
 * Al             36     -0.00211      0.00059      1.97041 *
 * Al             37     -0.00143     -0.00026     -0.01436 *
 * Al             38     -0.00217      0.00481     -0.85285 *
 * Al             39      0.00139     -0.00571     -1.97289 *
 * Al             40     -0.00134     -0.00015     -0.22511 *
 * Al             41     -0.00132     -0.00086     -0.08371 *
 * Al             42     -0.00091     -0.00026      0.08510 *
 * Al             43     -0.01192     -0.01301     -7.28892 *
 * Al             44     -0.00505      0.00094      7.29082 *
 * Al             45     -0.00107     -0.00061      0.01988 *
 * Al             46     -0.00128     -0.00067      0.24488 *
 * Al             47      0.01017      0.00312      0.86400 *
 * Al             48     -0.00785     -0.00089      1.97463 *
 * Al             49     -0.00121     -0.00069     -0.01414 *
 * Al             50     -0.01459      0.00773     -0.86346 *
 * Al             51     -0.00761     -0.00353     -1.95929 *
 * Al             52     -0.00102      0.00022     -0.22492 *
 * Al             53     -0.00162     -0.00031     -0.08385 *
 * Al             54     -0.00070      0.00012      0.08542 *
 * Al             55      0.00125     -0.00809     -7.28782 *
 * Al             56      0.00386      0.00133      7.29147 *
 * Al             57     -0.00103     -0.00074      0.01971 *
 * Al             58     -0.00099     -0.00047      0.24528 *
 * Al             59      0.00215      0.01591      0.86278 *
 * Al             60     -0.01198     -0.00343      1.97668 *
 * Al             61     -0.00107     -0.00051     -0.01421 *
 * Al             62     -0.01196      0.01009     -0.86232 *
 * Al             63     -0.00166     -0.00171     -1.96881 *
 * Al             64     -0.00078     -0.00071     -0.22447 *
 * Al             65     -0.00190     -0.00068     -0.08359 *
 * Al             66     -0.00065     -0.00015      0.08504 *
 * Al             67      0.01368     -0.01879     -7.28773 *
 * Al             68      0.01652      0.00271      7.29120 *
 * Al             69     -0.00044     -0.00100      0.01969 *
 * Al             70     -0.00096     -0.00056      0.24521 *
 * Al             71      0.00238      0.01138      0.85849 *
 * Al             72     -0.01140      0.00624      1.97605 *
 * Al             73     -0.00168     -0.00035     -0.01450 *
 * Al             74     -0.01524      0.00296     -0.85734 *
 * Al             75     -0.00067     -0.00606     -1.96269 *
 * Al             76     -0.00139     -0.00020     -0.22489 *
 * Al             77     -0.00185     -0.00062     -0.08388 *
 * Al             78     -0.00131     -0.00046      0.08532 *
 * Al             79     -0.00512     -0.00907     -7.28901 *
 * Al             80      0.00543      0.01681      7.29195 *
 * Al             81     -0.00128     -0.00067      0.01983 *
 * Al             82     -0.00059     -0.00050      0.24545 *
 * Al             83      0.01264      0.00148      0.85399 *
 * Al             84     -0.00300      0.00977      1.97811 *
 * Al             85     -0.00131     -0.00047     -0.01416 *
 * Al             86      0.00644     -0.00134     -0.85921 *
 * Al             87     -0.00972     -0.00830     -1.96950 *
 * Al             88     -0.00156     -0.00019     -0.22460 *
 * Al             89     -0.00178     -0.00038     -0.08367 *
 * Al             90     -0.00117     -0.00031      0.08468 *
 * Al             91     -0.02025     -0.00398     -7.29060 *
 * Al             92      0.03337     -0.00439      7.29189 *
 * Al             93     -0.00094     -0.00012      0.01978 *
 * Al             94     -0.00116     -0.00044      0.24527 *
 * Al             95      0.01500     -0.00588      0.86243 *
 * Al             96     -0.00010     -0.00095      1.97574 *
 * Al             97     -0.00096     -0.00056     -0.01423 *
 * Al             98      0.00160      0.01666     -0.85285 *
 * Al             99     -0.00641     -0.01068     -1.97357 *
 * Al            100     -0.00084     -0.00025     -0.22476 *
 * Al            101     -0.00168     -0.00025     -0.08407 *
 * Al            102     -0.00102     -0.00026      0.08539 *
 * Al            103     -0.00418      0.00594     -7.28917 *
 * Al            104      0.00322     -0.00315      7.29239 *
 * Al            105     -0.00113     -0.00008      0.02007 *
 * Al            106     -0.00147     -0.00015      0.24538 *
 * Al            107      0.00556      0.01169      0.85949 *
 * Al            108     -0.00449     -0.00157      1.98188 *
 *                                                          *
 ************************************************************

Writing analysis data to al3x3.castep_bin

Writing model to al3x3.check
 
 A BibTeX formatted list of references used in this run has been written to 
 al3x3.bib
 
Initialisation time =      2.86 s
Calculation time    =    656.27 s
Finalisation time   =      3.24 s
Total time          =    662.36 s
Peak Memory Use     = 1402044 kB
  
Overall parallel efficiency rating: Good (73%)                                  
  
Data was distributed by:-
G-vector (20-way); efficiency rating: Good (74%)                                
k-point (2-way); efficiency rating: Excellent (99%)                             
